 &FCI NORB=   7,NELEC=12,MS2=0,
  ORBSYM=1,1,1,1,1,1,1,
  ISYM=1,
 &END
 0.6479582253528881    1    1    1    1
 -0.001481870310513848    2    1    1    1
 0.03207737557367428    2    1    2    1
 0.5788360583065814    2    2    1    1
 -0.001534368741235042    2    2    2    1
 0.6394513178763771    2    2    2    2
 0.0001969606898557549    3    1    1    1
 -0.0007073235785713099    3    1    2    1
 -0.0005466296361218157    3    1    2    2
 0.02095130985689923    3    1    3    1
 0.0009366232323123595    3    2    1    1
 -0.0001981236676945458    3    2    2    1
 -0.0001343226419048812    3    2    2    2
 0.0001515770942766622    3    2    3    1
 0.02462056380999914    3    2    3    2
 0.606129878741518    3    3    1    1
 -0.001292903099255171    3    3    2    1
 0.5971157655007547    3    3    2    2
 0.0003497070797924191    3    3    3    1
 9.3157018662321e-05    3    3    3    2
 0.659798394498282    3    3    3    3
 0.0002315398113440177    4    1    1    1
 1.808579486567194e-05    4    1    2    1
 -0.0002321828088182036    4    1    2    2
 -0.0004826922192577242    4    1    3    1
 0.004800630823357995    4    1    3    2
 -0.007448724609806205    4    1    3    3
 0.02167995018693964    4    1    4    1
 -0.0009484735027605158    4    2    1    1
 -0.0005898463434404881    4    2    2    1
 9.353142367380223e-05    4    2    2    2
 0.005426794142509321    4    2    3    1
 -0.0001298673189732002    4    2    3    2
 -0.007226089714909182    4    2    3    3
 0.00281952107767866    4    2    4    1
 0.02451062420622991    4    2    4    2
 0.0006947110307169471    4    3    1    1
 -0.012174671419676    4    3    2    1
 -0.0008881030414628079    4    3    2    2
 0.004057888688647857    4    3    3    1
 0.003956964214413148    4    3    3    2
 -0.0005658778190512073    4    3    3    3
 0.002013503370101308    4    3    4    1
 0.004135729849541321    4    3    4    2
 0.02920949030044443    4    3    4    3
 0.6043701332778302    4    4    1    1
 -0.007882478333565096    4    4    2    1
 0.5967417373834096    4    4    2    2
 -0.003486526359642608    4    4    3    1
 -0.007188148615459454    4    4    3    2
 0.6032707594028418    4    4    3    3
 0.0004173036488110155    4    4    4    1
 0.0004717914714932677    4    4    4    2
 6.150206990018184e-05    4    4    4    3
 0.6594650287652489    4    4    4    4
 -7.03171600296225e-06    5    1    1    1
 0.0004833333653036168    5    1    2    1
 0.0003678656195557917    5    1    2    2
 0.004723631141327352    5    1    3    1
 0.001894310761488357    5    1    3    2
 0.009539173387011473    5    1    3    3
 -0.00403267583350546    5    1    4    1
 0.0001659815291353793    5    1    4    2
 0.002886868471165498    5    1    4    3
 -0.01001543398218411    5    1    4    4
 0.02567546948583959    5    1    5    1
 -0.001197586346089542    5    2    1    1
 -0.0002750224872530912    5    2    2    1
 -0.0002024911794113442    5    2    2    2
 0.001301817247860579    5    2    3    1
 -0.005263538412706686    5    2    3    2
 -0.005207846705060875    5    2    3    3
 -0.000667506781652615    5    2    4    1
 0.003746812593765764    5    2    4    2
 -0.0009057432929318221    5    2    4    3
 0.005661189947586804    5    2    4    4
 -0.003064923453649198    5    2    5    1
 0.02058501212040715    5    2    5    2
 -0.01018831032838358    5    3    1    1
 -0.003464422550116355    5    3    2    1
 0.01050768424805963    5    3    2    2
 -0.005028159049097222    5    3    3    1
 0.002965746261033429    5    3    3    2
 -0.000592129062202363    5    3    3    3
 0.001119498916283501    5    3    4    1
 -0.005486084970154744    5    3    4    2
 0.0002500621140929951    5    3    4    3
 -0.0008576693720188927    5    3    4    4
 -0.002326988999337395    5    3    5    1
 -0.003379808546333303    5    3    5    2
 0.02997639608670073    5    3    5    3
 0.008430504392662515    5    4    1    1
 0.0002402535371021822    5    4    2    1
 -0.007595742234811468    5    4    2    2
 -0.004059665504854962    5    4    3    1
 0.006860691554203546    5    4    3    2
 -0.001054195923821019    5    4    3    3
 0.005434309490074366    5    4    4    1
 -0.003418079899139024    5    4    4    2
 0.0003654080742208647    5    4    4    3
 0.0001301031294464145    5    4    4    4
 -0.004002802536409012    5    4    5    1
 -0.004379112184020229    5    4    5    2
 0.0005238274551572497    5    4    5    3
 0.02926338229273516    5    4    5    4
 0.5973638948953576    5    5    1    1
 0.006023691066055004    5    5    2    1
 0.6070131058099976    5    5    2    2
 0.00344625102839823    5    5    3    1
 0.006029806199946994    5    5    3    2
 0.6029792049984581    5    5    3    3
 0.006854059492368973    5    5    4    1
 0.007458496146283775    5    5    4    2
 -8.70148932776869e-05    5    5    4    3
 0.6050557556715892    5    5    4    4
 -0.0002095758219233218    5    5    5    1
 -0.0004005721867577341    5    5    5    2
 -8.558313592516492e-05    5    5    5    3
 0.0001705830984044181    5    5    5    4
 0.6634944541450094    5    5    5    5
 -0.01943404663720521    6    1    1    1
 0.007466474324545645    6    1    2    1
 0.01351832348894968    6    1    2    2
 -0.0002513127090772425    6    1    3    1
 -0.0008408324244137493    6    1    3    2
 -0.005441275088715773    6    1    3    3
 -6.220621806398569e-05    6    1    4    1
 0.0006155150653374266    6    1    4    2
 -0.005980363273278035    6    1    4    3
 -0.007228779758019618    6    1    4    4
 0.0004144593902810535    6    1    5    1
 0.0007410860635263503    6    1    5    2
 0.007559280154648794    6    1    5    3
 -0.00757224821467705    6    1    5    4
 0.006592918847271543    6    1    5    5
 0.0206064166574532    6    1    6    1
 0.004831053965248886    6    2    1    1
 0.01554414491918836    6    2    2    1
 -0.01163097368624604    6    2    2    2
 -0.0007118035977353985    6    2    3    1
 0.001310481194861372    6    2    3    2
 -0.0009589403645288325    6    2    3    3
 0.0005213635871029748    6    2    4    1
 -0.001021686678541932    6    2    4    2
 -0.01042103584644013    6    2    4    3
 -0.008777571124220122    6    2    4    4
 0.0007844076173093098    6    2    5    1
 -0.001242712813405516    6    2    5    2
 -0.007296567045419016    6    2    5    3
 0.004786684242818468    6    2    5    4
 0.001089734753929009    6    2    5    5
 -5.09281638827502e-05    6    2    6    1
 0.01919695073034921    6    2    6    2
 0.002893682321398883    6    3    1    1
 -0.001048010476847875    6    3    2    1
 0.004325089763761421    6    3    2    2
 -0.002971658673894331    6    3    3    1
 0.001848725587824532    6    3    3    2
 0.0186550406444969    6    3    3    3
 -0.005682298958928467    6    3    4    1
 -0.009857686655217345    6    3    4    2
 -0.0005491819796696613    6    3    4    3
 -0.004418863070303248    6    3    4    4
 0.007112283400358643    6    3    5    1
 -0.006690718563774404    6    3    5    2
 0.006131514059250314    6    3    5    3
 0.0008581310864545409    6    3    5    4
 -0.005519267153414473    6    3    5    5
 -0.0003184789717220132    6    3    6    1
 -0.0004992359790836494    6    3    6    2
 0.01476529075474331    6    3    6    3
 0.004135004424129948    6    4    1    1
 0.0001987615401020448    6    4    2    1
 0.002960902724222863    6    4    2    2
 -0.005631771236770835    6    4    3    1
 -0.009884395900962295    6    4    3    2
 0.003583673748015678    6    4    3    3
 -0.004680686902006875    6    4    4    1
 -0.005471071248649342    6    4    4    2
 -0.007569110843192721    6    4    4    3
 0.01711157638134474    6    4    4    4
 -0.007084313245691224    6    4    5    1
 0.004528414683806504    6    4    5    2
 0.0009605834416897814    6    4    5    3
 -0.002515283019172255    6    4    5    4
 -0.006675418818026814    6    4    5    5
 -0.0004852963404336075    6    4    6    1
 -0.0005623919151586191    6    4    6    2
 0.0001405649162998179    6    4    6    3
 0.01483004535221119    6    4    6    4
 0.001042890118173642    6    5    1    1
 0.0007857869941281415    6    5    2    1
 -0.0005706843261972653    6    5    2    2
 0.00668779518046756    6    5    3    1
 -0.006334526008252142    6    5    3    2
 0.006634522914063664    6    5    3    3
 -0.006703135453480403    6    5    4    1
 0.004234952605470197    6    5    4    2
 0.0008387368464033067    6    5    4    3
 -0.00193064080602702    6    5    4    4
 0.007630143046616376    6    5    5    1
 0.003356282968866664    6    5    5    2
 -0.008237119567458203    6    5    5    3
 -0.0102533498279706    6    5    5    4
 -0.001851785893195585    6    5    5    5
 7.774799208830792e-06    6    5    6    1
 0.0003598306513053608    6    5    6    2
 0.000307712956495274    6    5    6    3
 -0.0001125741726247355    6    5    6    4
 0.01257575073278393    6    5    6    5
 0.3502414603518245    6    6    1    1
 -0.001135757455933086    6    6    2    1
 0.3480543117256323    6    6    2    2
 -0.0002004735990867451    6    6    3    1
 -0.0003850894309685528    6    6    3    2
 0.3523185935492338    6    6    3    3
 -0.0003543064826488428    6    6    4    1
 -0.0003882787369670715    6    6    4    2
 0.0002682710353798027    6    6    4    3
 0.3524774579285962    6    6    4    4
 -2.918174273746274e-05    6    6    5    1
 0.000100676661296171    6    6    5    2
 0.0002066857902557873    6    6    5    3
 -5.479260180065767e-05    6    6    5    4
 0.3507891879725265    6    6    5    5
 -0.001206414573815241    6    6    6    1
 -0.001888098429904887    6    6    6    2
 0.001088167881460496    6    6    6    3
 0.001347082794585397    6    6    6    4
 0.0001681379284629112    6    6    6    5
 0.2997129392880591    6    6    6    6
 0.01283608276025674    7    1    1    1
 -0.001783394371208601    7    1    2    1
 0.002483994366010588    7    1    2    2
 -0.0001907540048574129    7    1    3    1
 0.0001598199393266132    7    1    3    2
 0.008411090934366136    7    1    3    3
 -0.0002681505431885439    7    1    4    1
 -0.0002237075124622709    7    1    4    2
 0.001050559680124553    7    1    4    3
 0.0086472005841229    7    1    4    4
 -0.0001608034318406757    7    1    5    1
 -0.0002620172547608354    7    1    5    2
 -0.001774930622386631    7    1    5    3
 0.00176285910709503    7    1    5    4
 0.005507098905204491    7    1    5    5
 -0.005251511551411575    7    1    6    1
 8.926184055798984e-05    7    1    6    2
 0.0002934003832916306    7    1    6    3
 0.0004365314314647466    7    1    6    4
 1.469723124133364e-05    7    1    6    5
 0.002405073613920691    7    1    6    6
 0.003931767238936998    7    1    7    1
 0.005207271766797274    7    2    1    1
 -0.003656985448329506    7    2    2    1
 0.01062281711021463    7    2    2    2
 -1.755164891189456e-05    7    2    3    1
 -0.0004469751650271325    7    2    3    2
 0.007388866865359106    7    2    3    3
 -6.143880674830621e-05    7    2    4    1
 -0.0002408930009195534    7    2    4    2
 0.001675956310819829    7    2    4    3
 0.008861287446398811    7    2    4    4
 -0.0003232931768123966    7    2    5    1
 0.0002084839758331505    7    2    5    2
 0.00172535167700955    7    2    5    3
 -0.0009180727041576413    7    2    5    4
 0.007046413267068626    7    2    5    5
 0.0001918987751450008    7    2    6    1
 -0.003843190229829429    7    2    6    2
 0.0004046341432917379    7    2    6    3
 0.0004751098794707655    7    2    6    4
 -0.0003916818199337249    7    2    6    5
 0.003264788989871465    7    2    6    6
 0.0002870970060562955    7    2    7    1
 0.003445765885430088    7    2    7    2
 -0.005113255715130698    7    3    1    1
 0.0003209980192115914    7    3    2    1
 -0.005135668957056771    7    3    2    2
 0.0009078046372314761    7    3    3    1
 0.0005143353303675641    7    3    3    2
 -0.006748826574495576    7    3    3    3
 0.0005973704792985373    7    3    4    1
 0.0009134520048287918    7    3    4    2
 -0.0003427766968645408    7    3    4    3
 -0.005360741555373674    7    3    4    4
 -0.0006129515647652761    7    3    5    1
 0.0005647121615033025    7    3    5    2
 -0.0003709022987916035    7    3    5    3
 8.784052446389901e-05    7    3    5    4
 -0.004613243332389708    7    3    5    5
 0.0003050780870785298    7    3    6    1
 0.0004136338064388978    7    3    6    2
 0.000780145211820555    7    3    6    3
 -0.0005085369770390254    7    3    6    4
 -9.89416802541121e-05    7    3    6    5
 -0.00232959706447149    7    3    6    6
 -0.0003339642248692791    7    3    7    1
 -0.0004043626403050445    7    3    7    2
 0.004583626606274256    7    3    7    3
 -0.006692172111717307    7    4    1    1
 0.0003690997335877484    7    4    2    1
 -0.006511813461480284    7    4    2    2
 0.0005410359645963236    7    4    3    1
 0.0009239632450731809    7    4    3    2
 -0.007307058016952866    7    4    3    3
 0.00112546028535171    7    4    4    1
 0.001168782519902903    7    4    4    2
 -1.534879084447914e-05    7    4    4    3
 -0.008473071510248939    7    4    4    4
 0.0006415580417415079    7    4    5    1
 -0.0003541514054655619    7    4    5    2
 -0.0001233747306228398    7    4    5    3
 0.0001013803406137459    7    4    5    4
 -0.006042228965964974    7    4    5    5
 0.0004596463761545118    7    4    6    1
 0.0004961236078556668    7    4    6    2
 -0.0005082900730331885    7    4    6    3
 0.000529871958363776    7    4    6    4
 -7.270075815368686e-05    7    4    6    5
 -0.003032326401175265    7    4    6    6
 -0.0004830610516957531    7    4    7    1
 -0.0005064312014119898    7    4    7    2
 -0.0001051725681777074    7    4    7    3
 0.004528160880460421    7    4    7    4
 -0.000983688926242763    7    5    1    1
 -0.0002219176572147589    7    5    2    1
 -0.0006550323390155557    7    5    2    2
 -7.864169861222038e-05    7    5    3    1
 0.000132625692587335    7    5    3    2
 -0.0008581638983617787    7    5    3    3
 0.0001592046256573548    7    5    4    1
 2.605424437756722e-05    7    5    4    2
 0.0002180155355657611    7    5    4    3
 -0.0009539511165388274    7    5    4    4
 0.0002790803730843747    7    5    5    1
 0.0004228315059404496    7    5    5    2
 -0.0004793624337718162    7    5    5    3
 -0.0008278493960759115    7    5    5    4
 -0.00118229003109119    7    5    5    5
 4.138553370439821e-05    7    5    6    1
 -0.0003673903460659828    7    5    6    2
 -9.38379245509036e-05    7    5    6    3
 -7.661284079338385e-05    7    5    6    4
 0.002574637867150495    7    5    6    5
 -0.0003225402152119125    7    5    6    6
 -8.557640216034647e-05    7    5    7    1
 -0.0002242683278310473    7    5    7    2
 7.115198637022394e-05    7    5    7    3
 -6.02776022094414e-05    7    5    7    4
 0.004325298567697416    7    5    7    5
 -0.003403829897189671    7    6    1    1
 0.0002939924705117545    7    6    2    1
 -0.002192998527581966    7    6    2    2
 0.0002143070718775368    7    6    3    1
 0.0003076736500607181    7    6    3    2
 0.001350704795845855    7    6    3    3
 0.0003334959253365914    7    6    4    1
 0.0003637293601721663    7    6    4    2
 -0.000390170817845974    7    6    4    3
 0.001156420374807871    7    6    4    4
 2.485244990643755e-05    7    6    5    1
 -0.0002418669855842813    7    6    5    2
 -9.343761724917974e-05    7    6    5    3
 -5.910471509706825e-05    7    6    5    4
 0.002955879900545898    7    6    5    5
 -0.0008655717200346443    7    6    6    1
 -0.0005857086292278597    7    6    6    2
 7.347821429269027e-05    7    6    6    3
 9.008950849307971e-05    7    6    6    4
 3.589726263290047e-05    7    6    6    5
 -0.007057566734736559    7    6    6    6
 0.0009806257235141129    7    6    7    1
 0.0006711185504464966    7    6    7    2
 0.0002984435393431728    7    6    7    3
 0.0004226548614967036    7    6    7    4
 3.825543487984975e-05    7    6    7    5
 0.01277930741555615    7    6    7    6
 0.3054409384078034    7    7    1    1
 0.0006259962358386768    7    7    2    1
 0.3047536627669461    7    7    2    2
 -0.0005110696860303794    7    7    3    1
 -0.0006677784017497796    7    7    3    2
 0.3114773779618664    7    7    3    3
 -0.0006769064075930307    7    7    4    1
 -0.0008410458549465143    7    7    4    2
 -0.0007105335332538343    7    7    4    3
 0.311124132831827    7    7    4    4
 -7.11098454207332e-05    7    7    5    1
 -0.0002469855260239695    7    7    5    2
 0.0001794294622210077    7    7    5    3
 -0.0001818284812326586    7    7    5    4
 0.3105322218003371    7    7    5    5
 0.001320620550235435    7    7    6    1
 0.0005547212469670867    7    7    6    2
 0.001254056702181996    7    7    6    3
 0.001678686642209748    7    7    6    4
 0.0002423984764766832    7    7    6    5
 0.2739897217564558    7    7    6    6
 0.0006254176388286875    7    7    7    1
 0.001374743713764615    7    7    7    2
 -0.0006794850231968616    7    7    7    3
 -0.000754044077955927    7    7    7    4
 -0.0001552300936212428    7    7    7    5
 0.000508288243783293    7    7    7    6
 0.2676820424584685    7    7    7    7
 -12.82435908523168    1    1  0  0
 0.01121952245508906    2    1  0  0
 -12.54026177693482    2    2  0  0
 0.0001399429985716279    3    1  0  0
 0.0006395579717792044    3    2  0  0
 -12.07222610067962    3    3  0  0
 0.0007291118677816043    4    1  0  0
 0.0006820198899829704    4    2  0  0
 0.0004853474101251501    4    3  0  0
 -12.06867314094405    4    4  0  0
 0.0005111696489322664    5    1  0  0
 0.002232367381219999    5    2  0  0
 0.002067170436277577    5    3  0  0
 -0.000361877939907838    5    4  0  0
 -12.06524881748083    5    5  0  0
 0.02262051824964282    6    1  0  0
 0.02743920013910161    6    2  0  0
 -0.02894822187400787    6    3  0  0
 -0.03803127599469006    6    4  0  0
 -0.006002537579118984    6    5  0  0
 -5.690231923726339    6    6  0  0
 -0.07006252676816511    7    1  0  0
 -0.07426187159945383    7    2  0  0
 0.05055198471389984    7    3  0  0
 0.06596349584875977    7    4  0  0
 0.008317788081520309    7    5  0  0
 0.00217607427449819    7    6  0  0
 -3.345212587707794    7    7  0  0
 -2881.779326309789  0  0  0  0
